
     Program PWSCF v.7.5 starts on 25May2026 at  9:28:51 

     This program is part of the open-source Quantum ESPRESSO suite
     for quantum simulation of materials; please cite
         "P. Giannozzi et al., J. Phys.:Condens. Matter 21 395502 (2009);
         "P. Giannozzi et al., J. Phys.:Condens. Matter 29 465901 (2017);
         "P. Giannozzi et al., J. Chem. Phys. 152 154105 (2020);
          URL http://www.quantum-espresso.org", 
     in publications or presentations arising from this work. More details at
     http://www.quantum-espresso.org/quote

     Parallel version (MPI), running on     4 processors

     MPI processes distributed on     1 nodes
     32803 MiB available memory on the printing compute node when the environment starts

     Reading input from dielectric_calc.pwi
Warning: card &CELL ignored

     Current dimensions of program PWSCF are:
     Max number of different atomic species (ntypx) = 10
     Max number of k-points (npk) =  40000
     Max angular momentum in pseudopotentials (lmaxx) =  4

     IMPORTANT: XC functional enforced from input :
     Exchange-correlation= LDA
                           (   1   1   0   0   0   0   0)
     Any further DFT definition will be discarded
     Please, verify this is what you really want

     Message from routine setup:
     using ibrav=0 with symmetry is DISCOURAGED, use correct ibrav instead

     K-points division:     npool     =       4
     Subspace diagonalization in iterative solution of the eigenvalue problem:
     a serial algorithm will be used


     G-vector sticks info
     --------------------
     sticks:   dense  smooth     PW     G-vecs:    dense   smooth      PW
     Sum        2217    2217    601                78205    78205   11123

     Using Slab Decomposition



     bravais-lattice index     =            0
     lattice parameter (alat)  =      11.7806  a.u.
     unit-cell volume          =    1634.9613 (a.u.)^3
     number of atoms/cell      =            5
     number of atomic types    =            3
     number of electrons       =        44.00
     number of Kohn-Sham states=           22
     kinetic-energy cutoff     =      50.0000  Ry
     charge density cutoff     =     200.0000  Ry
     scf convergence threshold =      1.0E-10
     mixing beta               =       0.7000
     number of iterations used =            8  plain     mixing
     Exchange-correlation= LDA
                           (   1   1   0   0   0   0   0)

     celldm(1)=  11.780647  celldm(2)=   0.000000  celldm(3)=   0.000000
     celldm(4)=   0.000000  celldm(5)=   0.000000  celldm(6)=   0.000000

     crystal axes: (cart. coord. in units of alat)
               a(1) = (   1.000000   0.000000   0.000000 )  
               a(2) = (   0.000000   1.000000   0.000000 )  
               a(3) = (   0.000000   0.000000   1.000000 )  

     reciprocal axes: (cart. coord. in units 2 pi/alat)
               b(1) = (  1.000000  0.000000  0.000000 )  
               b(2) = (  0.000000  1.000000  0.000000 )  
               b(3) = (  0.000000  0.000000  1.000000 )  


     PseudoPot. # 1 for Cs read from file:
     /home/darth-vader/espresso/pseudo/Cs.upf
     MD5 check sum: d01c53d012be9123745781bcb8b00a26
     Pseudo is Norm-conserving + core correction, Zval =  9.0
     Generated using ONCVPSP code by D. R. Hamann
     Using radial grid of 2414 points,  8 beta functions with: 
                l(1) =   0
                l(2) =   0
                l(3) =   1
                l(4) =   1
                l(5) =   2
                l(6) =   2
                l(7) =   3
                l(8) =   3

     PseudoPot. # 2 for Pb read from file:
     /home/darth-vader/espresso/pseudo/Pb.upf
     MD5 check sum: 40989d854e0b57882d9b50c0a8024c6e
     Pseudo is Norm-conserving + core correction, Zval = 14.0
     Generated using ONCVPSP code by D. R. Hamann
     Using radial grid of 1692 points,  8 beta functions with: 
                l(1) =   0
                l(2) =   0
                l(3) =   0
                l(4) =   1
                l(5) =   1
                l(6) =   2
                l(7) =   2
                l(8) =   3

     PseudoPot. # 3 for I  read from file:
     /home/darth-vader/espresso/pseudo/I.upf
     MD5 check sum: 9cb9d574a1900baf8aa34970b08b8049
     Pseudo is Norm-conserving + core correction, Zval =  7.0
     Generated using ONCVPSP code by D. R. Hamann
     Using radial grid of 1188 points,  8 beta functions with: 
                l(1) =   0
                l(2) =   0
                l(3) =   1
                l(4) =   1
                l(5) =   2
                l(6) =   2
                l(7) =   3
                l(8) =   3

     atomic species   valence    mass     pseudopotential
     Cs                9.00   132.90500     Cs( 1.00)
     Pb               14.00   207.20000     Pb( 1.00)
     I                 7.00   126.90400     I ( 1.00)

     48 Sym. Ops., with inversion, found



   Cartesian axes

     site n.     atom                  positions (alat units)
         1        Cs     tau(   1) = (   0.5000000   0.5000000   0.5000000  )
         2        Pb     tau(   2) = (   0.0000000   0.0000000   0.0000000  )
         3        I      tau(   3) = (   0.5000000   0.0000000   0.0000000  )
         4        I      tau(   4) = (   0.0000000   0.0000000   0.5000000  )
         5        I      tau(   5) = (   0.0000000   0.5000000   0.0000000  )

     number of k points=     4
                       cart. coord. in units 2pi/alat
        k(    1) = (   0.1250000   0.1250000   0.1250000), wk =   0.2500000
        k(    2) = (   0.1250000   0.1250000   0.3750000), wk =   0.7500000
        k(    3) = (   0.1250000   0.3750000   0.3750000), wk =   0.7500000
        k(    4) = (   0.3750000   0.3750000   0.3750000), wk =   0.2500000

     Dense  grid:    78205 G-vectors     FFT dimensions: (  54,  54,  54)

     Estimated max dynamical RAM per process >      95.74 MB

     Estimated total dynamical RAM >     325.69 MB

     Initial potential from superposition of free atoms

     starting charge      43.9595, renormalised to      44.0000
     Starting wfcs are   26 randomized atomic wfcs

     total cpu time spent up to now is        0.5 secs

     Self-consistent Calculation

     iteration #  1     ecut=    50.00 Ry     beta= 0.70
     Davidson diagonalization with overlap
     ethr =  1.00E-02,  avg # of iterations =  2.0

     Threshold (ethr) on eigenvalues was too large:
     Diagonalizing with lowered threshold

     Davidson diagonalization with overlap
     ethr =  9.97E-05,  avg # of iterations =  3.2

     total cpu time spent up to now is        1.3 secs

     total energy              =    -264.52465933 Ry
     estimated scf accuracy    <       0.03472452 Ry

     iteration #  2     ecut=    50.00 Ry     beta= 0.70
     Davidson diagonalization with overlap
     ethr =  7.89E-05,  avg # of iterations =  3.5

     total cpu time spent up to now is        1.8 secs

     total energy              =    -264.53278932 Ry
     estimated scf accuracy    <       0.00487125 Ry

     iteration #  3     ecut=    50.00 Ry     beta= 0.70
     Davidson diagonalization with overlap
     ethr =  1.11E-05,  avg # of iterations =  2.8

     total cpu time spent up to now is        2.2 secs

     total energy              =    -264.53382310 Ry
     estimated scf accuracy    <       0.00018936 Ry

     iteration #  4     ecut=    50.00 Ry     beta= 0.70
     Davidson diagonalization with overlap
     ethr =  4.30E-07,  avg # of iterations =  5.2

     total cpu time spent up to now is        2.7 secs

     total energy              =    -264.53388403 Ry
     estimated scf accuracy    <       0.00002892 Ry

     iteration #  5     ecut=    50.00 Ry     beta= 0.70
     Davidson diagonalization with overlap
     ethr =  6.57E-08,  avg # of iterations =  4.5

     total cpu time spent up to now is        3.2 secs

     total energy              =    -264.53389298 Ry
     estimated scf accuracy    <       0.00000031 Ry

     iteration #  6     ecut=    50.00 Ry     beta= 0.70
     Davidson diagonalization with overlap
     ethr =  7.06E-10,  avg # of iterations =  7.8

     total cpu time spent up to now is        4.1 secs

     total energy              =    -264.53389380 Ry
     estimated scf accuracy    <       0.00000014 Ry

     iteration #  7     ecut=    50.00 Ry     beta= 0.70
     Davidson diagonalization with overlap
     ethr =  3.22E-10,  avg # of iterations =  3.0

     total cpu time spent up to now is        4.5 secs

     total energy              =    -264.53389384 Ry
     estimated scf accuracy    <          7.0E-10 Ry

     iteration #  8     ecut=    50.00 Ry     beta= 0.70
     Davidson diagonalization with overlap
     ethr =  1.58E-12,  avg # of iterations = 10.8

     total cpu time spent up to now is        5.8 secs

     total energy              =    -264.53389385 Ry
     estimated scf accuracy    <          1.2E-10 Ry

     iteration #  9     ecut=    50.00 Ry     beta= 0.70
     Davidson diagonalization with overlap
     ethr =  2.69E-13,  avg # of iterations =  4.0

     total cpu time spent up to now is        6.3 secs

     End of self-consistent calculation

          k = 0.1250 0.1250 0.1250 (  9771 PWs)   bands (ev):

   -17.9445 -12.1963 -12.1963 -12.0882 -12.0882 -12.0882 -10.2958  -8.2210
    -8.2210  -7.3647  -4.8071  -4.8071  -4.7976  -0.2148  -0.2144  -0.2144
     1.7214   1.7214   1.8064   1.9688   2.0704   2.0704

          k = 0.1250 0.1250 0.3750 (  9746 PWs)   bands (ev):

   -17.9442 -12.1963 -12.1769 -12.0889 -12.0889 -12.0882 -10.1461  -8.4398
    -8.2179  -7.5727  -4.8054  -4.8010  -4.7908  -0.1225  -0.1177   0.8744
     1.4335   1.5840   1.7706   1.9915   2.0250   2.0268

          k = 0.1250 0.3750 0.3750 (  9761 PWs)   bands (ev):

   -17.9439 -12.1870 -12.1660 -12.0896 -12.0889 -12.0889  -9.9740  -8.4542
    -8.4075  -7.8078  -4.8092  -4.8068  -4.7966   0.0003   0.8264   1.1077
     1.2027   1.5448   1.6201   2.0211   2.0335   2.3733

          k = 0.3750 0.3750 0.3750 (  9757 PWs)   bands (ev):

   -17.9436 -12.1660 -12.1660 -12.0896 -12.0896 -12.0896  -9.7690  -8.4484
    -8.4484  -8.2383  -4.8228  -4.8228  -4.8123   0.8988   1.0251   1.0251
     1.4188   1.4188   1.6233   2.3548   2.3548   2.4039

     highest occupied level (ev):     2.4039

!    total energy              =    -264.53389385 Ry
     estimated scf accuracy    <          2.6E-11 Ry

     The total energy is the sum of the following terms:
     one-electron contribution =     -96.89975066 Ry
     hartree contribution      =      65.49301260 Ry
     xc contribution           =     -75.83829011 Ry
     ewald contribution        =    -157.28886568 Ry

     convergence has been achieved in   9 iterations

     Writing all to output data dir ./tmp/dielectric.save/ :
     XML data file, charge density, pseudopotentials, collected wavefunctions

     init_run     :      0.43s CPU      0.47s WALL (       1 calls)
     electrons    :      5.73s CPU      5.78s WALL (       1 calls)

     Called by init_run:
     wfcinit      :      0.23s CPU      0.25s WALL (       1 calls)
     potinit      :      0.03s CPU      0.03s WALL (       1 calls)
     hinit0       :      0.16s CPU      0.17s WALL (       1 calls)

     Called by electrons:
     c_bands      :      5.43s CPU      5.45s WALL (      10 calls)
     sum_band     :      0.21s CPU      0.22s WALL (      10 calls)
     v_of_rho     :      0.03s CPU      0.04s WALL (      10 calls)
     mix_rho      :      0.04s CPU      0.06s WALL (      10 calls)

     Called by c_bands:
     init_us_2    :      0.15s CPU      0.16s WALL (      21 calls)
     cegterg      :      4.78s CPU      4.80s WALL (      10 calls)

     Called by *egterg:
     cdiaghg      :      0.01s CPU      0.03s WALL (      57 calls)
     h_psi        :      4.05s CPU      4.06s WALL (      59 calls)
     g_psi        :      0.02s CPU      0.02s WALL (      48 calls)

     Called by h_psi:
     h_psi:calbec :      1.55s CPU      1.55s WALL (      59 calls)
     vloc_psi     :      0.79s CPU      0.79s WALL (      59 calls)
                                        0.00s GPU  (      59 calls)
     add_vuspsi   :      1.71s CPU      1.71s WALL (      59 calls)

     General routines
     calbec       :      1.55s CPU      1.55s WALL (      59 calls)
     fft          :      0.10s CPU      0.11s WALL (      31 calls)
     ffts         :      0.01s CPU      0.01s WALL (      10 calls)
     fftw         :      0.72s CPU      0.72s WALL (    1898 calls)

     Parallel routines

     PWSCF        :      6.21s CPU      6.31s WALL


   This run was terminated on:   9:28:57  25May2026            

=------------------------------------------------------------------------------=
   JOB DONE.
=------------------------------------------------------------------------------=
