
     Program PWSCF v.7.5 starts on 25May2026 at  9:59:33 

     This program is part of the open-source Quantum ESPRESSO suite
     for quantum simulation of materials; please cite
         "P. Giannozzi et al., J. Phys.:Condens. Matter 21 395502 (2009);
         "P. Giannozzi et al., J. Phys.:Condens. Matter 29 465901 (2017);
         "P. Giannozzi et al., J. Chem. Phys. 152 154105 (2020);
          URL http://www.quantum-espresso.org", 
     in publications or presentations arising from this work. More details at
     http://www.quantum-espresso.org/quote

     Parallel version (MPI), running on     6 processors

     MPI processes distributed on     1 nodes
     32232 MiB available memory on the printing compute node when the environment starts

     Reading input from dielectric_calc_tetra.pwi
Warning: card &CELL ignored

     Current dimensions of program PWSCF are:
     Max number of different atomic species (ntypx) = 10
     Max number of k-points (npk) =  40000
     Max angular momentum in pseudopotentials (lmaxx) =  4

     IMPORTANT: XC functional enforced from input :
     Exchange-correlation= LDA
                           (   1   1   0   0   0   0   0)
     Any further DFT definition will be discarded
     Please, verify this is what you really want

     Message from routine setup:
     using ibrav=0 with symmetry is DISCOURAGED, use correct ibrav instead

     K-points division:     npool     =       3
     R & G space division:  proc/nbgrp/npool/nimage =       2
     Subspace diagonalization in iterative solution of the eigenvalue problem:
     a serial algorithm will be used


     Parallelization info
     --------------------
     sticks:   dense  smooth     PW     G-vecs:    dense   smooth      PW
     Min        2128    2128    568                76874    76874   10585
     Max        2129    2129    569                76877    76877   10586
     Sum        4257    4257   1137               153751   153751   21171

     Using Slab Decomposition



     bravais-lattice index     =            0
     lattice parameter (alat)  =      16.3635  a.u.
     unit-cell volume          =    3216.7902 (a.u.)^3
     number of atoms/cell      =           10
     number of atomic types    =            3
     number of electrons       =        88.00
     number of Kohn-Sham states=           44
     kinetic-energy cutoff     =      50.0000  Ry
     charge density cutoff     =     200.0000  Ry
     scf convergence threshold =      1.0E-10
     mixing beta               =       0.7000
     number of iterations used =            8  plain     mixing
     Exchange-correlation= LDA
                           (   1   1   0   0   0   0   0)

     celldm(1)=  16.363485  celldm(2)=   0.000000  celldm(3)=   0.000000
     celldm(4)=   0.000000  celldm(5)=   0.000000  celldm(6)=   0.000000

     crystal axes: (cart. coord. in units of alat)
               a(1) = (   1.000000  -0.000000   0.000000 )  
               a(2) = (  -0.000000   1.000000  -0.000000 )  
               a(3) = (   0.000000  -0.000000   0.734168 )  

     reciprocal axes: (cart. coord. in units 2 pi/alat)
               b(1) = (  1.000000  0.000000 -0.000000 )  
               b(2) = (  0.000000  1.000000  0.000000 )  
               b(3) = ( -0.000000  0.000000  1.362086 )  


     PseudoPot. # 1 for Cs read from file:
     /home/darth-vader/espresso/pseudo/Cs.upf
     MD5 check sum: d01c53d012be9123745781bcb8b00a26
     Pseudo is Norm-conserving + core correction, Zval =  9.0
     Generated using ONCVPSP code by D. R. Hamann
     Using radial grid of 2414 points,  8 beta functions with: 
                l(1) =   0
                l(2) =   0
                l(3) =   1
                l(4) =   1
                l(5) =   2
                l(6) =   2
                l(7) =   3
                l(8) =   3

     PseudoPot. # 2 for Pb read from file:
     /home/darth-vader/espresso/pseudo/Pb.upf
     MD5 check sum: 40989d854e0b57882d9b50c0a8024c6e
     Pseudo is Norm-conserving + core correction, Zval = 14.0
     Generated using ONCVPSP code by D. R. Hamann
     Using radial grid of 1692 points,  8 beta functions with: 
                l(1) =   0
                l(2) =   0
                l(3) =   0
                l(4) =   1
                l(5) =   1
                l(6) =   2
                l(7) =   2
                l(8) =   3

     PseudoPot. # 3 for I  read from file:
     /home/darth-vader/espresso/pseudo/I.upf
     MD5 check sum: 9cb9d574a1900baf8aa34970b08b8049
     Pseudo is Norm-conserving + core correction, Zval =  7.0
     Generated using ONCVPSP code by D. R. Hamann
     Using radial grid of 1188 points,  8 beta functions with: 
                l(1) =   0
                l(2) =   0
                l(3) =   1
                l(4) =   1
                l(5) =   2
                l(6) =   2
                l(7) =   3
                l(8) =   3

     atomic species   valence    mass     pseudopotential
     Cs                9.00   132.90500     Cs( 1.00)
     Pb               14.00   207.20000     Pb( 1.00)
     I                 7.00   126.90400     I ( 1.00)

     16 Sym. Ops., with inversion, found ( 8 have fractional translation)



   Cartesian axes

     site n.     atom                  positions (alat units)
         1        Cs     tau(   1) = (  -0.0000000   0.5000000   0.3670839  )
         2        Cs     tau(   2) = (   0.5000000  -0.0000000   0.3670839  )
         3        Pb     tau(   3) = (   0.5000000   0.5000000  -0.0000000  )
         4        Pb     tau(   4) = (  -0.0000000   0.0000000  -0.0000000  )
         5        I      tau(   5) = (   0.1871825   0.3128175  -0.0000000  )
         6        I      tau(   6) = (   0.8128175   0.6871825  -0.0000000  )
         7        I      tau(   7) = (   0.6871825   0.1871825  -0.0000000  )
         8        I      tau(   8) = (   0.3128175   0.8128175  -0.0000000  )
         9        I      tau(   9) = (   0.5000000   0.5000000   0.3670839  )
        10        I      tau(  10) = (  -0.0000000  -0.0000000   0.3670839  )

     number of k points=     3
                       cart. coord. in units 2pi/alat
        k(    1) = (   0.1250000   0.1250000   0.3405216), wk =   0.5000000
        k(    2) = (   0.1250000   0.3750000   0.3405216), wk =   1.0000000
        k(    3) = (   0.3750000   0.3750000   0.3405216), wk =   0.5000000

     Dense  grid:   153751 G-vectors     FFT dimensions: (  80,  80,  60)

     Estimated max dynamical RAM per process >     135.95 MB

     Estimated total dynamical RAM >     740.62 MB

     Initial potential from superposition of free atoms

     starting charge      87.9190, renormalised to      88.0000
     Starting wfcs are   52 randomized atomic wfcs

     total cpu time spent up to now is        1.1 secs

     Self-consistent Calculation

     iteration #  1     ecut=    50.00 Ry     beta= 0.70
     Davidson diagonalization with overlap
     ethr =  1.00E-02,  avg # of iterations =  2.0

     Threshold (ethr) on eigenvalues was too large:
     Diagonalizing with lowered threshold

     Davidson diagonalization with overlap
     ethr =  1.08E-04,  avg # of iterations =  4.3

     total cpu time spent up to now is        5.0 secs

     total energy              =    -529.08342367 Ry
     estimated scf accuracy    <       0.07598736 Ry

     iteration #  2     ecut=    50.00 Ry     beta= 0.70
     Davidson diagonalization with overlap
     ethr =  8.63E-05,  avg # of iterations =  4.0

     total cpu time spent up to now is        7.1 secs

     total energy              =    -529.10125935 Ry
     estimated scf accuracy    <       0.01377993 Ry

     iteration #  3     ecut=    50.00 Ry     beta= 0.70
     Davidson diagonalization with overlap
     ethr =  1.57E-05,  avg # of iterations =  3.0

     total cpu time spent up to now is        8.9 secs

     total energy              =    -529.10446865 Ry
     estimated scf accuracy    <       0.00049809 Ry

     iteration #  4     ecut=    50.00 Ry     beta= 0.70
     Davidson diagonalization with overlap
     ethr =  5.66E-07,  avg # of iterations =  5.3

     total cpu time spent up to now is       11.6 secs

     total energy              =    -529.10462166 Ry
     estimated scf accuracy    <       0.00011035 Ry

     iteration #  5     ecut=    50.00 Ry     beta= 0.70
     Davidson diagonalization with overlap
     ethr =  1.25E-07,  avg # of iterations =  4.3

     total cpu time spent up to now is       13.6 secs

     total energy              =    -529.10464581 Ry
     estimated scf accuracy    <       0.00000454 Ry

     iteration #  6     ecut=    50.00 Ry     beta= 0.70
     Davidson diagonalization with overlap
     ethr =  5.16E-09,  avg # of iterations =  5.7

     total cpu time spent up to now is       16.7 secs

     total energy              =    -529.10465051 Ry
     estimated scf accuracy    <       0.00000132 Ry

     iteration #  7     ecut=    50.00 Ry     beta= 0.70
     Davidson diagonalization with overlap
     ethr =  1.50E-09,  avg # of iterations =  4.0

     total cpu time spent up to now is       18.7 secs

     total energy              =    -529.10465081 Ry
     estimated scf accuracy    <       0.00000005 Ry

     iteration #  8     ecut=    50.00 Ry     beta= 0.70
     Davidson diagonalization with overlap
     ethr =  5.78E-11,  avg # of iterations =  8.0

     total cpu time spent up to now is       23.0 secs

     total energy              =    -529.10465090 Ry
     estimated scf accuracy    <       0.00000001 Ry

     iteration #  9     ecut=    50.00 Ry     beta= 0.70
     Davidson diagonalization with overlap
     ethr =  1.46E-11,  avg # of iterations =  2.7

     total cpu time spent up to now is       25.2 secs

     total energy              =    -529.10465091 Ry
     estimated scf accuracy    <          1.1E-10 Ry

     iteration # 10     ecut=    50.00 Ry     beta= 0.70
     Davidson diagonalization with overlap
     ethr =  1.21E-13,  avg # of iterations = 10.3

     total cpu time spent up to now is       31.8 secs

     End of self-consistent calculation

          k = 0.1250 0.1250 0.3405 ( 19194 PWs)   bands (ev):

   -17.6045 -17.6036 -12.1122 -12.1037 -12.0933 -12.0796 -12.0240 -12.0239
   -12.0233 -12.0232 -12.0208 -12.0192 -10.0462  -9.6447  -8.3552  -8.3111
    -8.2995  -8.1285  -8.0626  -7.4325  -4.5248  -4.5239  -4.5021  -4.5012
    -4.4948  -4.4853  -0.1105   0.0328   0.4196   0.7169   1.0092   1.1944
     1.2367   1.5992   1.6337   1.8402   1.8583   1.9306   2.0171   2.0943
     2.2075   2.2249   2.2442   2.3679

          k = 0.1250 0.3750 0.3405 ( 19217 PWs)   bands (ev):

   -17.6043 -17.6039 -12.1056 -12.0979 -12.0977 -12.0877 -12.0239 -12.0236
   -12.0236 -12.0233 -12.0204 -12.0197  -9.9488  -9.7866  -8.3331  -8.3063
    -8.2697  -8.1985  -7.8555  -7.5981  -4.5182  -4.5146  -4.5004  -4.4975
    -4.4893  -4.4846   0.1194   0.4542   0.5008   0.6016   0.6902   0.9998
     1.3532   1.4128   1.5162   1.5905   1.6710   1.8979   2.0638   2.1458
     2.1747   2.1821   2.2692   2.3206

          k = 0.3750 0.3750 0.3405 ( 19179 PWs)   bands (ev):

   -17.6042 -17.6040 -12.1084 -12.1049 -12.0899 -12.0861 -12.0240 -12.0239
   -12.0233 -12.0232 -12.0202 -12.0199  -9.8948  -9.8261  -8.3871  -8.3503
    -8.2674  -8.2535  -7.7035  -7.6036  -4.5072  -4.5051  -4.4945  -4.4908
    -4.4905  -4.4884   0.0112   0.2263   0.5216   0.5765   0.8874   1.0233
     1.2554   1.3991   1.6938   1.7757   1.8420   1.8682   1.9451   2.0544
     2.0636   2.2082   2.2202   2.2732

     highest occupied level (ev):     2.3679

!    total energy              =    -529.10465091 Ry
     estimated scf accuracy    <          4.0E-11 Ry

     The total energy is the sum of the following terms:
     one-electron contribution =    -183.50133572 Ry
     hartree contribution      =     126.23412565 Ry
     xc contribution           =    -151.65515245 Ry
     ewald contribution        =    -320.18228839 Ry

     convergence has been achieved in  10 iterations

     Writing all to output data dir ./tmp/dielectric_tetra.save/ :
     XML data file, charge density, pseudopotentials, collected wavefunctions

     init_run     :      1.01s CPU      1.05s WALL (       1 calls)
     electrons    :     30.61s CPU     30.73s WALL (       1 calls)

     Called by init_run:
     wfcinit      :      0.74s CPU      0.76s WALL (       1 calls)
     potinit      :      0.02s CPU      0.03s WALL (       1 calls)
     hinit0       :      0.23s CPU      0.24s WALL (       1 calls)

     Called by electrons:
     c_bands      :     29.87s CPU     29.96s WALL (      11 calls)
     sum_band     :      0.58s CPU      0.60s WALL (      11 calls)
     v_of_rho     :      0.06s CPU      0.07s WALL (      11 calls)
     mix_rho      :      0.07s CPU      0.07s WALL (      11 calls)

     Called by c_bands:
     init_us_2    :      0.41s CPU      0.43s WALL (      23 calls)
     cegterg      :     27.78s CPU     27.86s WALL (      11 calls)

     Called by *egterg:
     cdiaghg      :      0.08s CPU      0.08s WALL (      60 calls)
     h_psi        :     21.81s CPU     21.89s WALL (      62 calls)
     g_psi        :      0.04s CPU      0.04s WALL (      50 calls)

     Called by h_psi:
     h_psi:calbec :     10.25s CPU     10.26s WALL (      62 calls)
     vloc_psi     :      2.12s CPU      2.18s WALL (      62 calls)
                                        0.00s GPU  (      62 calls)
     add_vuspsi   :      9.40s CPU      9.40s WALL (      62 calls)

     General routines
     calbec       :     10.25s CPU     10.26s WALL (      62 calls)
     fft          :      0.23s CPU      0.23s WALL (      34 calls)
     ffts         :      0.01s CPU      0.01s WALL (      11 calls)
     fftw         :      1.94s CPU      2.00s WALL (    4192 calls)

     Parallel routines

     PWSCF        :     31.68s CPU     31.85s WALL


   This run was terminated on:  10: 0: 5  25May2026            

=------------------------------------------------------------------------------=
   JOB DONE.
=------------------------------------------------------------------------------=
